1 : 8eeedef4326a6ae242180345a5dc7fef.inp
----- GAMESS execution script 'rungms' -----
This job is running on host seylerjupiter
under operating system Linux at Thu 15 Sep 2022 09:32:45 AM MST
Available scratch disk space (Kbyte units) at beginning of the job is
Filesystem      1K-blocks      Used Available Use% Mounted on
/dev/nvme2n1p1 1921724608 931282728 892749824  52% /home
GAMESS temporary binary files will be written to /home/sseyler/scratch/gamess/restart
GAMESS supplementary output files will be written to /home/sseyler/scratch/gamess/restart
Copying input file ./8eeedef4326a6ae242180345a5dc7fef.inp to your run's scratch directory...

 Distributed Data Interface kickoff program.
 Initiating 1 compute processes on 1 nodes to run the following command:
 /home/sseyler/Library/GAMESS/gamess-intel-mkl/gamess.00.x 8eeedef4326a6ae242180345a5dc7fef 

          *******************************************************
          *                                                     *
          *      GAMESS VERSION = 30 SEP 2021 (R2 Patch 2)      *
          *                                                     *
          *              doi.org/10.1063/5.0005188              *
          *                                                     *
          **************** 64 BIT INTEL VERSION *****************

  GAMESS HAS BEEN MADE POSSIBLE WITH IMPORTANT CONTRIBUTIONS FROM
  THE FOLLOWING INDIVIDUALS (IN ALPHABETICAL ORDER):

     IVANA ADAMOVIC, CHRISTINE AIKENS, TOMOKO AKAMA,
     MELISA ALKAN, YURI ALEXEEV, YURIKO AOKI, POOJA ARORA,
     TOSHIO ASADA, ANDREY ASADCHEV, KIM K. BALDRIDGE,
     PRADIPTA BANDYOPADHYAY, TAYLOR A. BARNES, MARIA BARYSZ,
     ROB BELL, JONATHAN BENTZ, COLLEEN BERTONI,
     JERRY A. BOATZ, BRETT BODE, KURT BRORSEN, KURT R. BRORSEN,
     LAIMUTIS BYTAUTAS, CALEB CARLIN, LAURA CARRINGTON,
     GALINA CHABAN, BENOIT CHAMPAGNE, WEI CHEN, MAHITO CHIBA,
     DAN CHIPMAN, CHEOL HO CHOI, TANNER CULPITT,
     DIPAYAN DATTA, PAUL DAY, ALBERT DEFUSCO,
     NUWAN DESILVA, J. EMILIANO DEUSTUA,
     TIM DUDLEY, MICHEL DUPUIS, STEVEN T. ELBERT,
     DMITRI FEDOROV, ALEX FINDLATER, GRAHAM FLETCHER,
     MARK FREITAG, CHRISTIAN FRIEDL, DAVID GARMER,
     IGOR S. GERASIMOV, KURT GLAESEMANN, MARK S. GORDON,
     JEFFREY GOUR, FENG LONG GU, EMILIE B. GUIDEZ,
     ANASTASIA GUNINA, SHARON HAMMES-SCHIFFER, MASATAKE HARUTA,
     KIMIHIKO HIRAO, YASUHIRO IKABATA, TZVETELIN IORDANOV,
     STEPHAN IRLE, KAZUYA ISHIMURA, JOE IVANIC, FRANK JENSEN,
     JAN H. JENSEN, VISVALDAS KAIRYS, MUNEAKI KAMIYA,
     MICHIO KATOUDA, NAOAKI KAWAKAMI, DAN KEMP, BERNARD KIRTMAN,
     KAZUO KITAURA, MARIUSZ KLOBUKOWSKI, MASATO KOBAYASHI,
     PRAKASHAN KORAMBATH, JACEK KORCHOWIEC, SHIRO KOSEKI,
     KAROL KOWALSKI, JIMMY KROMANN, STANISLAW KUCHARSKI,
     HENRY KURTZ, SAROM SOK LEANG, HUI LI, SHUHUA LI, WEI LI,
     JESSE LUTZ, ALEKSANDR O. LYKHIN, MARCIN MAKOWSKI,
     JOANI MATO, NIKITA MATSUNAGA, BENEDETTA MENNUCCI,
     GRANT MERRILL, NORIYUKI MINEZAWA, VLADIMIR MIRONOV,
     EISAKU MIYOSHI, JOHN A. MONTGOMERY JR., HIROTOSHI MORI,
     JONATHAN MULLIN, MONIKA MUSIAL, SHIGERU NAGASE,
     TAKESHI NAGATA, HIROMI NAKAI, TAKAHITO NAKAJIMA,
     YUYA NAKAJIMA, HARUYUKI NAKANO, HIROYA NAKATA, SEAN NEDD,
     HEATHER NETZLOFF, KIET A. NGUYEN, YOSHIO NISHIMOTO,
     BOSILJKA NJEGIC, RYAN OLSON, MIKE PAK, ROBERTO PEVERATI,
     BUU PHAM, PIOTR PIECUCH, ANNA POMOGAEVA, DAVID POOLE,
     SPENCER PRUITT, OLIVIER QUINET, LUKE ROSKOP,
     KLAUS RUEDENBERG, ANDREW SAND, TOSAPORN SATTASATHUCHANA,
     NOZOMI SAWADA, MICHAEL W. SCHMIDT, PATRICK E. SCHNEIDER,
     JUNJI SEINO, PRACHI SHARMA, JUN SHEN, JIM SHOEMAKER,
     YINAN SHU, DEJUN SI, JONATHAN SKONE, LYUDMILA SLIPCHENKO,
     TONY SMITH, JIE SONG, MARK SPACKMAN, CASPER STEINMANN,
     WALT STEVENS, PEIFENG SU, SHUJUN SU, CHET SWALINA,
     TETSUYA TAKETSUGU, ZHEN TAO, NANDUN THELLAMUREGE
     SEIKEN TOKURA, JACOPO TOMASI, TSUGUKI TOUMA, TAKAO TSUNEDA,
     HIROAKI UMEDA, JORGE LUIS GALVEZ VALLEJO, YALI WANG,
     SIMON WEBB, AARON WEST, THERESA L. WINDUS, MARTA WLOCH,
     PENG XU, KIYOSHI YAGI, SUSUMU YANAGISAWA, YANG YANG,
     SOOHAENG YOO, TAKESHI YOSHIKAWA, FEDERICO ZAHARIEV,
     TOBY ZENG

  WHO ARE SUPPORTED BY THEIR INSTITUTION/UNIVERSITY/COMPANY/GROUP
  (IN ALPHABETICAL ORDER):

     EP ANALYTICS, FACULTES UNIVERSITAIRES NOTRE-DAME DE LA PAIX,
     INSTITUTE FOR MOLECULAR SCIENCE, IOWA STATE UNIVERSITY,
     JACKSON STATE UNIVERSITY, JOHANNES KEPLER UNIVERSITY LINZ,
     KYUSHU UNIVERSITY, MICHIGAN STATE UNIVERSITY,
     MIE UNIVERSITY, THE MOLECULAR SCIENCES SOFTWARE INSTITUTE,
     MOSCOW STATE UNIVERSITY,
     N. COPERNICUS UNIVERSITY, NAGOYA UNIVERSITY,
     NANJING UNIVERSITY, NAT. INST. OF ADVANCED INDUSTRIAL
     SCIENCE AND TECHNOLOGY, NATIONAL INST. OF STANDARDS AND
     TECHNOLOGY, NESMEYANOV INSTITUTE OF ORGANOELEMENT COMPOUNDS
     OF RUSSIAN ACADEMY OF SCIENCES, OSAKA PREFECTURE UNIVERSITY,
     PENNSYLVANIA STATE UNIVERSITY, TOKYO INSTITUTE OF TECHNOLOGY,
     UNIVERSITY OF AARHUS, UNIVERSITY OF ALBERTA,
     UNIVERSITY OF CALIFORNIA AT SANTA BARBARA,
     UNIVERSITY OF COPENHAGEN, UNIVERSITY OF IOWA,
     UNIVERSITY OF MEMPHIS, UNIVERSITY OF MINNESOTA,
     UNIVERSITY OF NEBRASKA, UNIVERSITY OF NEW ENGLAND,
     UNIVERSITY OF NOTRE DAME, UNIVERSITY OF PISA,
     UNIVERSITY OF SILESIA, UNIVERSITY OF TOKYO,
     UNIVERSITY OF ZURICH, WASEDA UNIVERSITY, YALE UNIVERSITY

  GAMESS SOFTWARE MANAGEMENT TEAM FOR THIS RELEASE:
     MARK S. GORDON (TEAM LEAD),
     BRETT BODE (SENIOR ADVISOR),
     GIUSEPPE BARCA,
     COLLEEN BERTONI,
     KRISTOPHER KEIPERT (ADVISOR),
     SAROM S. LEANG (DEVELOPMENT LEAD),
     BUU PHAM,
     JORGE LUIS GALVEZ VALLEJO (WEBSITE ADMINISTRATOR),
     PENG XU

 EXECUTION OF GAMESS BEGUN 09:32:50 15-SEP-2022    

            ECHO OF THE FIRST FEW INPUT CARDS -
 INPUT CARD> $basis gbasis=pm3 $end                                                         
 INPUT CARD> $contrl runtyp=optimize icharg=0 $end                                          
 INPUT CARD> $statpt opttol=0.00025 nstep=500 projct=.F. $end                               
 INPUT CARD> $data                                                                          
 INPUT CARD>Title                                                                           
 INPUT CARD>C1                                                                              
 INPUT CARD>C     6.0    -0.000100     -0.000100    -0.000100                               
 INPUT CARD>H     1.0    -0.000000     -0.892600    -0.631100                               
 INPUT CARD>H     1.0    -0.000000     0.892600    -0.631200                                
 INPUT CARD>H     1.0    -0.892600     -0.000000    0.631100                                
 INPUT CARD>H     1.0    0.892700     -0.000000    0.631200                                 
 INPUT CARD> $end                                                                           
    1000000 WORDS OF MEMORY AVAILABLE

     BASIS OPTIONS
     -------------
     GBASIS=PM3          IGAUSS=       0      POLAR=NONE    
     NDFUNC=       0     NFFUNC=       0     DIFFSP=       F
     NPFUNC=       0      DIFFS=       F     BASNAM=        


     RUN TITLE
     ---------
 Title                                                                           

 THE POINT GROUP OF THE MOLECULE IS C1      
 THE ORDER OF THE PRINCIPAL AXIS IS     0

 ATOM      ATOMIC                      COORDINATES (BOHR)
           CHARGE         X                   Y                   Z
 C           6.0    -0.0001889726       -0.0001889726       -0.0001889726
 H           1.0     0.0000000000       -1.6867694166       -1.1926060709
 H           1.0     0.0000000000        1.6867694166       -1.1927950435
 H           1.0    -1.6867694166        0.0000000000        1.1926060709
 H           1.0     1.6869583892        0.0000000000        1.1927950435

          INTERNUCLEAR DISTANCES (ANGS.)
          ------------------------------

                1 C          2 H          3 H          4 H          5 H     

   1 C       0.0000000    1.0930312 *  1.0932523 *  1.0931467 *  1.0934494 *
   2 H       1.0930312 *  0.0000000    1.7852000 *  1.7851102 *  1.7852309 *
   3 H       1.0932523 *  1.7852000 *  0.0000000    1.7851809 *  1.7853016 *
   4 H       1.0931467 *  1.7851102 *  1.7851809 *  0.0000000    1.7853000 *
   5 H       1.0934494 *  1.7852309 *  1.7853016 *  1.7853000 *  0.0000000  

  * ... LESS THAN  3.000


 TOTAL NUMBER OF BASIS SET SHELLS             =    5
 NUMBER OF CARTESIAN GAUSSIAN BASIS FUNCTIONS =    8
 NUMBER OF ELECTRONS                          =    8
 CHARGE OF MOLECULE                           =    0
 SPIN MULTIPLICITY                            =    1
 NUMBER OF OCCUPIED ORBITALS (ALPHA)          =    4
 NUMBER OF OCCUPIED ORBITALS (BETA )          =    4
 TOTAL NUMBER OF ATOMS                        =    5
 THE NUCLEAR REPULSION ENERGY IS       13.3958188481

 THE PARAMETERS USED IN THIS CALCULATION ARE DESCRIBED IN:

  H: (PM3): J. J. P. STEWART, J. COMP. CHEM. 10, 209 (1989).                    
  C: (PM3): J. J. P. STEWART, J. COMP. CHEM. 10, 209 (1989).                    

 THERE ARE    1 HEAVY AND    4 LIGHT ATOMS,
 YIELDING A TOTAL OF        46 MOPAC 2E- INTEGRALS.

     $CONTRL OPTIONS
     ---------------
 SCFTYP=RHF          RUNTYP=OPTIMIZE     EXETYP=RUN     
 MPLEVL=       0     CITYP =NONE         CCTYP =NONE         VBTYP =NONE    
 DFTTYP=NONE         TDDFT =NONE    
 MULT  =       1     ICHARG=       0     NZVAR =       0     COORD =UNIQUE  
 PP    =NONE         RELWFN=NONE         LOCAL =NONE         NUMGRD=       F
 ISPHER=      -1     NOSYM =       0     MAXIT =      30     UNITS =ANGS    
 PLTORB=       F     MOLPLT=       F     AIMPAC=       F     FRIEND=        
 NPRINT=       7     IREST =       0     GEOM  =INPUT   
 NORMF =       0     NORMP =       0     ITOL  =      20     ICUT  =       9
 INTTYP=BEST         GRDTYP=BEST         QMTTOL= 1.0E-06

     $SYSTEM OPTIONS
     ---------------
  REPLICATED MEMORY=     1000000 WORDS (ON EVERY NODE).
 DISTRIBUTED MEMDDI=           0 MILLION WORDS IN AGGREGATE,
 MEMDDI DISTRIBUTED OVER   1 PROCESSORS IS           0 WORDS/PROCESSOR.
 TOTAL MEMORY REQUESTED ON EACH PROCESSOR=     1000000 WORDS.
 TIMLIM=      525600.00 MINUTES, OR     365.0 DAYS.
 PARALL= F  BALTYP=  DLB     KDIAG=    0  COREFL= F
 MXSEQ2=     300 MXSEQ3=     150  mem10=         0  mem22=         0

          ----------------
          PROPERTIES INPUT
          ----------------

     MOMENTS            FIELD           POTENTIAL          DENSITY
 IEMOM =       1   IEFLD =       0   IEPOT =       0   IEDEN =       0
 WHERE =COMASS     WHERE =NUCLEI     WHERE =NUCLEI     WHERE =NUCLEI  
 OUTPUT=BOTH       OUTPUT=BOTH       OUTPUT=BOTH       OUTPUT=BOTH    
 IEMINT=       0   IEFINT=       0                     IEDINT=       0
                                                       MORB  =       0
          EXTRAPOLATION IN EFFECT
 ORBITAL PRINTING OPTION: NPREO=     1     8     2     1

     -------------------------------
     INTEGRAL TRANSFORMATION OPTIONS
     -------------------------------
     NWORD  =            0
     CUTOFF = 1.0E-09     MPTRAN =       0
     DIRTRF =       F     AOINTS =DUP     

          ----------------------
          INTEGRAL INPUT OPTIONS
          ----------------------
 NOPK  =       1 NORDER=       0 SCHWRZ=       F

     ------------------------------------------
     THE POINT GROUP IS C1 , NAXIS= 0, ORDER= 1
     ------------------------------------------

     DIMENSIONS OF THE SYMMETRY SUBSPACES ARE
 A   =    8

 ..... DONE SETTING UP THE RUN .....
 STEP CPU TIME =     0.01 TOTAL CPU TIME =          0.0 (      0.0 MIN)
 TOTAL WALL CLOCK TIME=          0.0 SECONDS, CPU UTILIZATION IS    99.10%


          -----------------------------
          STATIONARY POINT LOCATION RUN
          -----------------------------

 OBTAINING INITIAL HESSIAN, HESS=GUESS   
 CARTESIAN COORDINATE OPTIMIZATION USING BADGER'S RULE FORCE CONSTANT GUESS

          PARAMETERS CONTROLLING GEOMETRY SEARCH ARE
          METHOD =QA                  UPHESS =BFGS    
          NNEG   =         0          NFRZ   =         0
          NSTEP  =       500          IFOLOW =         1
          HESS   =GUESS               RESTAR =         F
          IHREP  =         0          HSSEND =         F
          NPRT   =         0          NPUN   =         0
          OPTTOL = 2.500E-04          RMIN   = 1.500E-03
          RMAX   = 1.000E-01          RLIM   = 7.000E-02
          DXMAX  = 3.000E-01          PURIFY =         F
          MOVIE  =         F          TRUPD  =         T
          TRMAX  = 5.000E-01          TRMIN  = 5.000E-02
          ITBMAT =         5          STPT   =         F
          STSTEP = 1.000E-02          PROJCT=          F

 BEGINNING GEOMETRY SEARCH POINT NSERCH=   0 ...

 COORDINATES OF ALL ATOMS ARE (ANGS)
   ATOM   CHARGE       X              Y              Z
 ------------------------------------------------------------
 C           6.0  -0.0001000000  -0.0001000000  -0.0001000000
 H           1.0   0.0000000000  -0.8926000000  -0.6311000000
 H           1.0   0.0000000000   0.8926000000  -0.6312000000
 H           1.0  -0.8926000000   0.0000000000   0.6311000000
 H           1.0   0.8927000000   0.0000000000   0.6312000000

          ********************
          1 ELECTRON INTEGRALS
          ********************

          **************************
          1 AND 2 ELECTRON INTEGRALS
          **************************

 MOPAC ONE- AND TWO-ELECTRON INTEGRALS REQUIRE       118 WORDS.
 ...... END OF ONE- AND TWO-ELECTRON INTEGRALS......
 STEP CPU TIME =     0.00 TOTAL CPU TIME =          0.0 (      0.0 MIN)
 TOTAL WALL CLOCK TIME=          0.0 SECONDS, CPU UTILIZATION IS    99.16%
 ...... END OF ONE-ELECTRON INTEGRALS ......
 STEP CPU TIME =     0.00 TOTAL CPU TIME =          0.0 (      0.0 MIN)
 TOTAL WALL CLOCK TIME=          0.0 SECONDS, CPU UTILIZATION IS    99.16%

          -------------
          GUESS OPTIONS
          -------------
          GUESS =HUCKEL            NORB  =       0          NORDER=       0
          MIX   =       F          PRTMO =       F          PUNMO =       F
          TOLZ  = 1.0E-08          TOLE  = 1.0E-05
          SYMDEN=       F          PURIFY=       F

 INITIAL GUESS ORBITALS GENERATED BY HUCKEL   ROUTINE.

 SYMMETRIES FOR INITIAL GUESS ORBITALS FOLLOW.   BOTH SET(S).
     4 ORBITALS ARE OCCUPIED (    0 CORE ORBITALS).
     1=A        2=A        3=A        4=A        5=A        6=A        7=A   
     8=A   
 ...... END OF INITIAL ORBITAL SELECTION ......
 STEP CPU TIME =     0.00 TOTAL CPU TIME =          0.0 (      0.0 MIN)
 TOTAL WALL CLOCK TIME=          0.0 SECONDS, CPU UTILIZATION IS    99.22%

          --------------------------
               R-PM3 SCF CALCULATION
          --------------------------

     NUCLEAR ENERGY =         7.4796395945
     MAXIT =   30     NPUNCH=    2
     EXTRAP=T  DAMP=F  SHIFT=F  RSTRCT=F  DIIS=F  DEM=F  SOSCF=F
     DENSITY MATRIX CONV=  1.00E-05
     MEMORY REQUIRED FOR RHF ITERS=       686 WORDS.

 ITER EX DEM     TOTAL ENERGY        E CHANGE  DENSITY CHANGE    DIIS ERROR
   1  0  0       -6.5441856306    -6.5441856306   0.279215150   0.000000000
   2  1  0       -6.6249945348    -0.0808089042   0.056715775   0.000000000
   3  2  0       -6.6322740505    -0.0072795157   0.029700686   0.000000000
   4  3  0       -6.6337050712    -0.0014310207   0.016614405   0.000000000
   5  0  0       -6.6341415182    -0.0004364470   0.022986082   0.000000000
   6  1  0       -6.6343659805    -0.0002244623   0.000008312   0.000000000
   7  2  0       -6.6343659806    -0.0000000001   0.000004730   0.000000000
   8  3  0       -6.6343659807    -0.0000000000   0.000002738   0.000000000

          -----------------
          DENSITY CONVERGED
          -----------------
     TIME TO FORM FOCK OPERATORS=       0.0 SECONDS (       0.0 SEC/ITER)
     TIME TO SOLVE SCF EQUATIONS=       0.0 SECONDS (       0.0 SEC/ITER)

 FINAL R-PM3 ENERGY IS       -6.6343659807 AFTER   8 ITERATIONS

 HEAT OF FORMATION IS       -12.94328 KCAL/MOL
 

          ------------
          EIGENVECTORS
          ------------

                      1          2          3          4          5
                   -1.0940    -0.5004    -0.5004    -0.5003     0.1547
                     A          A          A          A          A   
    1  C  1  S    0.746307  -0.000001  -0.000007   0.000008   0.665601
    2  C  1  X   -0.000015   0.176910  -0.463260   0.503752   0.000849
    3  C  1  Y   -0.000008  -0.576366  -0.381403  -0.148336   0.000579
    4  C  1  Z   -0.000008  -0.369020   0.373624   0.473189   0.000581
    5  H  2  S    0.332853   0.592428   0.082926  -0.131739  -0.372517
    6  H  3  S    0.332792  -0.223202  -0.456830  -0.341672  -0.373261
    7  H  4  S    0.332822  -0.309840   0.514694  -0.119663  -0.372862
    8  H  5  S    0.332737  -0.059490  -0.140881   0.593219  -0.373973

                      6          7          8
                    0.1678     0.1679     0.1679
                     A          A          A   
    1  C  1  S    0.000824  -0.000522  -0.000511
    2  C  1  X   -0.524669   0.434202  -0.191096
    3  C  1  Y    0.144746   0.417868   0.552056
    4  C  1  Z   -0.451768  -0.370381   0.398806
    5  H  2  S   -0.123878   0.110500   0.589645
    6  H  3  S   -0.328464  -0.480081  -0.190545
    7  H  4  S   -0.145459   0.492167  -0.334048
    8  H  5  S    0.596057  -0.121480  -0.063980
 ...... END OF RHF CALCULATION ......
 STEP CPU TIME =     0.00 TOTAL CPU TIME =          0.0 (      0.0 MIN)
 TOTAL WALL CLOCK TIME=          0.0 SECONDS, CPU UTILIZATION IS    99.33%

     ----------------------------------------------------------------
     PROPERTY VALUES FOR THE RHF   SELF-CONSISTENT FIELD WAVEFUNCTION
     ----------------------------------------------------------------

                    -------------
                    MOPAC CHARGES
                    -------------
         ATOM NO.   TYPE          CHARGE        ATOM  ELECTRON DENSITY
           1         C             -0.1120          4.1120
           2         H              0.0280          0.9720
           3         H              0.0280          0.9720
           4         H              0.0280          0.9720
           5         H              0.0280          0.9720

          ---------------------
          ELECTROSTATIC MOMENTS
          ---------------------

 POINT   1           X           Y           Z (ANGS)      CHARGE
                 0.000000    0.000000    0.000000       -0.00 (A.U.)
         DX          DY          DZ         /D/  (DEBYE)
     0.000017    0.000015    0.000015    0.000027
 ...... END OF PROPERTY EVALUATION ......
 STEP CPU TIME =     0.00 TOTAL CPU TIME =          0.0 (      0.0 MIN)
 TOTAL WALL CLOCK TIME=          0.0 SECONDS, CPU UTILIZATION IS    99.40%

          NSERCH=  0     ENERGY=      -6.6343660

                                 -----------------------
                                 GRADIENT (HARTREE/BOHR)
                                 -----------------------
        ATOM     ZNUC       DE/DX         DE/DY         DE/DZ
 --------------------------------------------------------------
    1  C            6.0    -0.0001639    -0.0001226    -0.0001225
    2  H            1.0     0.0000044    -0.0038368    -0.0027068
    3  H            1.0     0.0000044     0.0039498    -0.0027804
    4  H            1.0    -0.0038891     0.0000048     0.0027530
    5  H            1.0     0.0040443     0.0000048     0.0028566

          MAXIMUM GRADIENT = 0.0040443    RMS GRADIENT = 0.0024854

 NSERCH:   0  E=       -6.6343659807  GRAD. MAX=  0.0040443  R.M.S.=  0.0024854

          FORCE CONSTANT MATRIX NOT UPDATED --- TAKING FIRST STEP
          MIN SEARCH, CORRECT HESSIAN, TRYING PURE NR STEP
               NR STEP HAS LENGTH         =   0.019728
          RADIUS OF STEP TAKEN=   0.01973  CURRENT TRUST RADIUS=   0.30000

 BEGINNING GEOMETRY SEARCH POINT NSERCH=   1 ...

 COORDINATES OF ALL ATOMS ARE (ANGS)
   ATOM   CHARGE       X              Y              Z
 ------------------------------------------------------------
 C           6.0   0.0000993640   0.0000651903   0.0000652382
 H           1.0  -0.0000794748  -0.8882720860  -0.6281295986
 H           1.0  -0.0000794421   0.8882543330  -0.6283208113
 H           1.0  -0.8883749466  -0.0000737372   0.6280507749
 H           1.0   0.8884344995  -0.0000737000   0.6282343967

          INTERNUCLEAR DISTANCES (ANGS.)
          ------------------------------

                1 C          2 H          3 H          4 H          5 H     

   1 C       0.0000000    1.0880128 *  1.0880023 *  1.0880039 *  1.0879962 *
   2 H       1.0880128 *  0.0000000    1.7765264 *  1.7765006 *  1.7767397 *
   3 H       1.0880023 *  1.7765264 *  0.0000000    1.7767007 *  1.7769397 *
   4 H       1.0880039 *  1.7765006 *  1.7767007 *  0.0000000    1.7768095 *
   5 H       1.0879962 *  1.7767397 *  1.7769397 *  1.7768095 *  0.0000000  

  * ... LESS THAN  3.000


 MOPAC ONE- AND TWO-ELECTRON INTEGRALS REQUIRE       118 WORDS.
 ...... END OF ONE- AND TWO-ELECTRON INTEGRALS......
 STEP CPU TIME =     0.00 TOTAL CPU TIME =          0.0 (      0.0 MIN)
 TOTAL WALL CLOCK TIME=          0.0 SECONDS, CPU UTILIZATION IS    99.42%
 ...... END OF ONE-ELECTRON INTEGRALS ......
 STEP CPU TIME =     0.00 TOTAL CPU TIME =          0.0 (      0.0 MIN)
 TOTAL WALL CLOCK TIME=          0.0 SECONDS, CPU UTILIZATION IS    99.42%

          --------------------------
               R-PM3 SCF CALCULATION
          --------------------------
     DENSITY MATRIX CONV=  1.00E-05

 ITER EX DEM     TOTAL ENERGY        E CHANGE  DENSITY CHANGE    DIIS ERROR
   1  0  0       -6.6344734361    -6.6344734361   0.002006178   0.000000000
   2  1  0       -6.6344767321    -0.0000032961   0.000459376   0.000000000
   3  2  0       -6.6344769086    -0.0000001765   0.000104608   0.000000000
   4  3  0       -6.6344769185    -0.0000000098   0.000023487   0.000000000
   5  4  0       -6.6344769191    -0.0000000006   0.000005075   0.000000000
   6  5  0       -6.6344769192    -0.0000000001   0.000002674   0.000000000

          -----------------
          DENSITY CONVERGED
          -----------------
     TIME TO FORM FOCK OPERATORS=       0.0 SECONDS (       0.0 SEC/ITER)
     TIME TO SOLVE SCF EQUATIONS=       0.0 SECONDS (       0.0 SEC/ITER)

 FINAL R-PM3 ENERGY IS       -6.6344769192 AFTER   6 ITERATIONS

 HEAT OF FORMATION IS       -13.01290 KCAL/MOL
 
 ...... END OF RHF CALCULATION ......
 STEP CPU TIME =     0.00 TOTAL CPU TIME =          0.0 (      0.0 MIN)
 TOTAL WALL CLOCK TIME=          0.0 SECONDS, CPU UTILIZATION IS    99.46%

          NSERCH=  1     ENERGY=      -6.6344769

                                 -----------------------
                                 GRADIENT (HARTREE/BOHR)
                                 -----------------------
        ATOM     ZNUC       DE/DX         DE/DY         DE/DZ
 --------------------------------------------------------------
    1  C            6.0     0.0000419     0.0000376     0.0000377
    2  H            1.0    -0.0000209    -0.0006325    -0.0004580
    3  H            1.0    -0.0000208     0.0006301    -0.0004814
    4  H            1.0    -0.0006547    -0.0000176     0.0004362
    5  H            1.0     0.0006545    -0.0000176     0.0004655

          MAXIMUM GRADIENT = 0.0006547    RMS GRADIENT = 0.0004090

 NSERCH:   1  E=       -6.6344769192  GRAD. MAX=  0.0006547  R.M.S.=  0.0004090

          HESSIAN UPDATED USING THE BFGS FORMULA
             ACTUAL ENERGY CHANGE WAS  -0.0001109385
          PREDICTED ENERGY CHANGE WAS  -0.0000949012 RATIO=  1.169
          MIN SEARCH, CORRECT HESSIAN, TRYING PURE NR STEP
               NR STEP HAS LENGTH         =   0.004350
          RADIUS OF STEP TAKEN=   0.00435  CURRENT TRUST RADIUS=   0.05000

 BEGINNING GEOMETRY SEARCH POINT NSERCH=   2 ...

 COORDINATES OF ALL ATOMS ARE (ANGS)
   ATOM   CHARGE       X              Y              Z
 ------------------------------------------------------------
 C           6.0  -0.0002410493  -0.0002251641  -0.0002254401
 H           1.0   0.0001897270  -0.8877798140  -0.6276156146
 H           1.0   0.0001896238   0.8875958615  -0.6273664196
 H           1.0  -0.8874577892   0.0001546179   0.6277221855
 H           1.0   0.8873194877   0.0001544988   0.6273852888

          INTERNUCLEAR DISTANCES (ANGS.)
          ------------------------------

                1 C          2 H          3 H          4 H          5 H     

   1 C       0.0000000    1.0869093 *  1.0869831 *  1.0869553 *  1.0870414 *
   2 H       1.0869093 *  0.0000000    1.7753757 *  1.7754489 *  1.7749518 *
   3 H       1.0869831 *  1.7753757 *  0.0000000    1.7750260 *  1.7745291 *
   4 H       1.0869553 *  1.7754489 *  1.7750260 *  0.0000000    1.7747773 *
   5 H       1.0870414 *  1.7749518 *  1.7745291 *  1.7747773 *  0.0000000  

  * ... LESS THAN  3.000


 MOPAC ONE- AND TWO-ELECTRON INTEGRALS REQUIRE       118 WORDS.
 ...... END OF ONE- AND TWO-ELECTRON INTEGRALS......
 STEP CPU TIME =     0.00 TOTAL CPU TIME =          0.0 (      0.0 MIN)
 TOTAL WALL CLOCK TIME=          0.0 SECONDS, CPU UTILIZATION IS    99.48%
 ...... END OF ONE-ELECTRON INTEGRALS ......
 STEP CPU TIME =     0.00 TOTAL CPU TIME =          0.0 (      0.0 MIN)
 TOTAL WALL CLOCK TIME=          0.0 SECONDS, CPU UTILIZATION IS    99.48%

          --------------------------
               R-PM3 SCF CALCULATION
          --------------------------
     DENSITY MATRIX CONV=  1.00E-05

 ITER EX DEM     TOTAL ENERGY        E CHANGE  DENSITY CHANGE    DIIS ERROR
   1  0  0       -6.6344795833    -6.6344795833   0.000396965   0.000000000
   2  1  0       -6.6344797962    -0.0000002129   0.000090853   0.000000000
   3  2  0       -6.6344798171    -0.0000000208   0.000027129   0.000000000
   4  3  0       -6.6344798201    -0.0000000030   0.000014054   0.000000000
   5  4  0       -6.6344798206    -0.0000000006   0.000007144   0.000000000
   6  5  0       -6.6344798208    -0.0000000001   0.000003566   0.000000000

          -----------------
          DENSITY CONVERGED
          -----------------
     TIME TO FORM FOCK OPERATORS=       0.0 SECONDS (       0.0 SEC/ITER)
     TIME TO SOLVE SCF EQUATIONS=       0.0 SECONDS (       0.0 SEC/ITER)

 FINAL R-PM3 ENERGY IS       -6.6344798208 AFTER   6 ITERATIONS

 HEAT OF FORMATION IS       -13.01472 KCAL/MOL
 
 ...... END OF RHF CALCULATION ......
 STEP CPU TIME =     0.00 TOTAL CPU TIME =          0.0 (      0.0 MIN)
 TOTAL WALL CLOCK TIME=          0.0 SECONDS, CPU UTILIZATION IS    99.51%

          NSERCH=  2     ENERGY=      -6.6344798

                                 -----------------------
                                 GRADIENT (HARTREE/BOHR)
                                 -----------------------
        ATOM     ZNUC       DE/DX         DE/DY         DE/DZ
 --------------------------------------------------------------
    1  C            6.0    -0.0001301    -0.0001110    -0.0001111
    2  H            1.0     0.0000466     0.0000123     0.0000297
    3  H            1.0     0.0000466     0.0000194     0.0000635
    4  H            1.0     0.0000486     0.0000397     0.0000289
    5  H            1.0    -0.0000118     0.0000397    -0.0000110

          MAXIMUM GRADIENT = 0.0001301    RMS GRADIENT = 0.0000622

 NSERCH:   2  E=       -6.6344798208  GRAD. MAX=  0.0001301  R.M.S.=  0.0000622


      ***** EQUILIBRIUM GEOMETRY LOCATED *****
 COORDINATES OF ALL ATOMS ARE (ANGS)
   ATOM   CHARGE       X              Y              Z
 ------------------------------------------------------------
 C           6.0  -0.0002410493  -0.0002251641  -0.0002254401
 H           1.0   0.0001897270  -0.8877798140  -0.6276156146
 H           1.0   0.0001896238   0.8875958615  -0.6273664196
 H           1.0  -0.8874577892   0.0001546179   0.6277221855
 H           1.0   0.8873194877   0.0001544988   0.6273852888

          INTERNUCLEAR DISTANCES (ANGS.)
          ------------------------------

                1 C          2 H          3 H          4 H          5 H     

   1 C       0.0000000    1.0869093 *  1.0869831 *  1.0869553 *  1.0870414 *
   2 H       1.0869093 *  0.0000000    1.7753757 *  1.7754489 *  1.7749518 *
   3 H       1.0869831 *  1.7753757 *  0.0000000    1.7750260 *  1.7745291 *
   4 H       1.0869553 *  1.7754489 *  1.7750260 *  0.0000000    1.7747773 *
   5 H       1.0870414 *  1.7749518 *  1.7745291 *  1.7747773 *  0.0000000  

  * ... LESS THAN  3.000


          NUCLEAR ENERGY    =        7.5103140167
          ELECTRONIC ENERGY =      -14.1447938374
          TOTAL ENERGY      =       -6.6344798208

          ------------------
          MOLECULAR ORBITALS
          ------------------

                      1          2          3          4          5
                   -1.0981    -0.5014    -0.5014    -0.5013     0.1560
                     A          A          A          A          A   
    1  C  1  S   -0.745263  -0.000139   0.000098  -0.000169   0.666769
    2  C  1  X   -0.000072  -0.164196  -0.461371   0.510025  -0.000947
    3  C  1  Y   -0.000061   0.580565  -0.374052  -0.151464  -0.000795
    4  C  1  Z   -0.000061   0.368627   0.383607   0.465729  -0.000803
    5  H  2  S   -0.333360  -0.594922   0.072693  -0.125719  -0.373816
    6  H  3  S   -0.333390   0.226270  -0.456386  -0.339953  -0.372432
    7  H  4  S   -0.333378   0.300513   0.518084  -0.127757  -0.372960
    8  H  5  S   -0.333414   0.068263  -0.134478   0.593578  -0.371314

                      6          7          8
                    0.1688     0.1688     0.1689
                     A          A          A   
    1  C  1  S   -0.001069  -0.000615  -0.000873
    2  C  1  X   -0.518413  -0.451112   0.166723
    3  C  1  Y    0.150580  -0.385073  -0.573700
    4  C  1  Z   -0.456730   0.385077  -0.378377
    5  H  2  S   -0.121245  -0.079387  -0.594230
    6  H  3  S   -0.334202   0.465128   0.216927
    7  H  4  S   -0.137578  -0.511088   0.307538
    8  H  5  S    0.595525   0.126786   0.071807

     ----------------------------------------------------------------
     PROPERTY VALUES FOR THE RHF   SELF-CONSISTENT FIELD WAVEFUNCTION
     ----------------------------------------------------------------

                    -------------
                    MOPAC CHARGES
                    -------------
         ATOM NO.   TYPE          CHARGE        ATOM  ELECTRON DENSITY
           1         C             -0.1104          4.1104
           2         H              0.0277          0.9723
           3         H              0.0276          0.9724
           4         H              0.0276          0.9724
           5         H              0.0275          0.9725

          ---------------------
          ELECTROSTATIC MOMENTS
          ---------------------

 POINT   1           X           Y           Z (ANGS)      CHARGE
                 0.000000    0.000000    0.000000        0.00 (A.U.)
         DX          DY          DZ         /D/  (DEBYE)
     0.000097    0.000082    0.000082    0.000151
 ...... END OF PROPERTY EVALUATION ......
 STEP CPU TIME =     0.00 TOTAL CPU TIME =          0.0 (      0.0 MIN)
 TOTAL WALL CLOCK TIME=          0.0 SECONDS, CPU UTILIZATION IS    99.55%
  $VIB   
          IVIB=   0 IATOM=   0 ICOORD=   0 E=       -6.6344798208
 -1.301394712E-04-1.110002798E-04-1.111239353E-04 4.661200689E-05 1.226026628E-05
  2.972385870E-05 4.663500921E-05 1.936876905E-05 6.348504738E-05 4.864474304E-05
  3.967459295E-05 2.888299711E-05-1.175228796E-05 3.969665150E-05-1.096796786E-05
  9.692886271E-05 8.205080454E-05 8.239315569E-05
 ......END OF GEOMETRY SEARCH......
 STEP CPU TIME =     0.00 TOTAL CPU TIME =          0.0 (      0.0 MIN)
 TOTAL WALL CLOCK TIME=          0.0 SECONDS, CPU UTILIZATION IS    99.56%
                580000  WORDS OF DYNAMIC MEMORY USED
 EXECUTION OF GAMESS TERMINATED NORMALLY 09:32:50 15-SEP-2022    
 DDI: 263640 bytes (0.3 MB / 0 MWords) used by master data server.

 ----------------------------------------
 CPU timing information for all processes
 ========================================
 0: 0.00 + 0.15 = 0.15
 ----------------------------------------
 ddikick.x: exited gracefully.
----- accounting info -----
Files used on the master node seylerjupiter were:
-rw-rw-r-- 1 sseyler sseyler   12882 Sep 15 09:32 /home/sseyler/scratch/gamess/restart/8eeedef4326a6ae242180345a5dc7fef.dat
-rw-rw-r-- 1 sseyler sseyler     380 Sep 15 09:32 /home/sseyler/scratch/gamess/restart/8eeedef4326a6ae242180345a5dc7fef.F05
-rw-rw-r-- 1 sseyler sseyler       0 Sep 15 09:32 /home/sseyler/scratch/gamess/restart/8eeedef4326a6ae242180345a5dc7fef.F08
-rw-rw-r-- 1 sseyler sseyler 1505120 Sep 15 09:32 /home/sseyler/scratch/gamess/restart/8eeedef4326a6ae242180345a5dc7fef.F10
Thu 15 Sep 2022 09:32:53 AM MST
1.8u 3.9s 0:08.88 65.7% 0+0k 0+8io 0pf+0w
